s -t 0.100665000 -Hs 0 -Hd -2 -Ni 0 -Nx 15.00 -Ny 20.00 -Nz 0.00 -Ne 99.999904 -Nl MAC -Nw --- -Ma 0 -Md ffffffff -Ms 0 -Mt 800 -Is 0.255 -Id -1.255 -It AODV -Il 55 -If 0 -Ii 0 -Iv 30 -P aodv -Pt 0x2 -Ph 1 -Pb 1 -Pd 3 -Pds 0 -Ps 0 -Pss 4 -Pc REQUEST 
N -t 0.100665 -n 1 -e 99.999414
N -t 0.100665 -n 3 -e 99.999414
N -t 0.100665 -n 2 -e 99.999414
r -t 0.103257033 -Hs 1 -Hd -2 -Ni 1 -Nx 25.00 -Ny 20.00 -Nz 0.00 -Ne 99.999414 -Nl MAC -Nw --- -Ma 0 -Md ffffffff -Ms 0 -Mt 800 -Is 0.255 -Id -1.255 -It AODV -Il 48 -If 0 -Ii 0 -Iv 30 -P aodv -Pt 0x2 -Ph 1 -Pb 1 -Pd 3 -Pds 0 -Ps 0 -Pss 4 -Pc REQUEST 
r -t 0.103257060 -Hs 3 -Hd -2 -Ni 3 -Nx 5.00 -Ny 5.00 -Nz 0.00 -Ne 99.999414 -Nl MAC -Nw --- -Ma 0 -Md ffffffff -Ms 0 -Mt 800 -Is 0.255 -Id -1.255 -It AODV -Il 48 -If 0 -Ii 0 -Iv 30 -P aodv -Pt 0x2 -Ph 1 -Pb 1 -Pd 3 -Pds 0 -Ps 0 -Pss 4 -Pc REQUEST 
r -t 0.103257067 -Hs 2 -Hd -2 -Ni 2 -Nx 35.00 -Ny 20.00 -Nz 0.00 -Ne 99.999414 -Nl MAC -Nw --- -Ma 0 -Md ffffffff -Ms 0 -Mt 800 -Is 0.255 -Id -1.255 -It AODV -Il 48 -If 0 -Ii 0 -Iv 30 -P aodv -Pt 0x2 -Ph 1 -Pb 1 -Pd 3 -Pds 0 -Ps 0 -Pss 4 -Pc REQUEST 
s -t 0.105847060 -Hs 3 -Hd -2 -Ni 3 -Nx 5.00 -Ny 5.00 -Nz 0.00 -Ne 99.999318 -Nl MAC -Nw --- -Ma 0 -Md ffffffff -Ms 3 -Mt 806 -P arp -Po REQUEST -Pms 3 -Ps 3 -Pmd 0 -Pd 0 
N -t 0.105847 -n 0 -e 99.998925
N -t 0.105847 -n 1 -e 99.999021
N -t 0.105847 -n 2 -e 99.999021
r -t 0.107799120 -Hs 0 -Hd -2 -Ni 0 -Nx 15.00 -Ny 20.00 -Nz 0.00 -Ne 99.998925 -Nl MAC -Nw --- -Ma 0 -Md ffffffff -Ms 3 -Mt 806 -P arp -Po REQUEST -Pms 3 -Ps 3 -Pmd 0 -Pd 0 
r -t 0.107799143 -Hs 1 -Hd -2 -Ni 1 -Nx 25.00 -Ny 20.00 -Nz 0.00 -Ne 99.999021 -Nl MAC -Nw --- -Ma 0 -Md ffffffff -Ms 3 -Mt 806 -P arp -Po REQUEST -Pms 3 -Ps 3 -Pmd 0 -Pd 0 
r -t 0.107799172 -Hs 2 -Hd -2 -Ni 2 -Nx 35.00 -Ny 20.00 -Nz 0.00 -Ne 99.998829 -Nl MAC -Nw --- -Ma 0 -Md ffffffff -Ms 3 -Mt 806 -P arp -Po REQUEST -Pms 3 -Ps 3 -Pmd 0 -Pd 0 
s -t 0.108125857 -Hs 2 -Hd -2 -Ni 2 -Nx 35.00 -Ny 20.00 -Nz 0.00 -Ne 99.998733 -Nl MAC -Nw --- -Ma 0 -Md ffffffff -Ms 2 -Mt 800 -Is 2.255 -Id -1.255 -It AODV -Il 55 -If 0 -Ii 0 -Iv 29 -P aodv -Pt 0x2 -Ph 2 -Pb 1 -Pd 3 -Pds 0 -Ps 0 -Pss 4 -Pc REQUEST 
N -t 0.108126 -n 1 -e 99.998435
N -t 0.108126 -n 0 -e 99.998339
N -t 0.108126 -n 3 -e 99.998339
s -t 0.110364120 -Hs 0 -Hd -2 -Ni 0 -Nx 15.00 -Ny 20.00 -Nz 0.00 -Ne 99.998147 -Nl MAC -Nw --- -Ma 0 -Md 3 -Ms 0 -Mt 806 -P arp -Po REPLY -Pms 0 -Ps 0 -Pmd 3 -Pd 3 
N -t 0.110364 -n 1 -e 99.997850
N -t 0.110364 -n 3 -e 99.997946
N -t 0.110364 -n 2 -e 99.997754
r -t 0.110717891 -Hs 1 -Hd -2 -Ni 1 -Nx 25.00 -Ny 20.00 -Nz 0.00 -Ne 99.997850 -Nl MAC -Nw --- -Ma 0 -Md ffffffff -Ms 2 -Mt 800 -Is 2.255 -Id -1.255 -It AODV -Il 48 -If 0 -Ii 0 -Iv 29 -P aodv -Pt 0x2 -Ph 2 -Pb 1 -Pd 3 -Pds 0 -Ps 0 -Pss 4 -Pc REQUEST 
r -t 0.110717924 -Hs 0 -Hd -2 -Ni 0 -Nx 15.00 -Ny 20.00 -Nz 0.00 -Ne 99.997754 -Nl MAC -Nw --- -Ma 0 -Md ffffffff -Ms 2 -Mt 800 -Is 2.255 -Id -1.255 -It AODV -Il 48 -If 0 -Ii 0 -Iv 29 -P aodv -Pt 0x2 -Ph 2 -Pb 1 -Pd 3 -Pds 0 -Ps 0 -Pss 4 -Pc REQUEST 
r -t 0.110717969 -Hs 3 -Hd -2 -Ni 3 -Nx 5.00 -Ny 5.00 -Nz 0.00 -Ne 99.997946 -Nl MAC -Nw --- -Ma 0 -Md ffffffff -Ms 2 -Mt 800 -Is 2.255 -Id -1.255 -It AODV -Il 48 -If 0 -Ii 0 -Iv 29 -P aodv -Pt 0x2 -Ph 2 -Pb 1 -Pd 3 -Pds 0 -Ps 0 -Pss 4 -Pc REQUEST 
r -t 0.112316180 -Hs 3 -Hd -2 -Ni 3 -Nx 5.00 -Ny 5.00 -Nz 0.00 -Ne 99.997946 -Nl MAC -Nw --- -Ma 0 -Md 3 -Ms 0 -Mt 806 -P arp -Po REPLY -Pms 0 -Ps 0 -Pmd 3 -Pd 3 
s -t 0.112641180 -Hs 3 -Hd 0 -Ni 3 -Nx 5.00 -Ny 5.00 -Nz 0.00 -Ne 99.997850 -Nl MAC -Nw --- -Ma 0 -Md 0 -Ms 3 -Mt 800 -Is 3.255 -Id 0.255 -It AODV -Il 51 -If 0 -Ii 0 -Iv 30 -P aodv -Pt 0x4 -Ph 1 -Pd 3 -Pds 4 -Pl 10.000000 -Pc REPLY 
N -t 0.112641 -n 0 -e 99.997206
N -t 0.112641 -n 1 -e 99.997110
N -t 0.112641 -n 2 -e 99.997206
r -t 0.115105240 -Hs 0 -Hd 0 -Ni 0 -Nx 15.00 -Ny 20.00 -Nz 0.00 -Ne 99.997206 -Nl MAC -Nw --- -Ma 0 -Md 0 -Ms 3 -Mt 800 -Is 3.255 -Id 0.255 -It AODV -Il 44 -If 0 -Ii 0 -Iv 30 -P aodv -Pt 0x4 -Ph 1 -Pd 3 -Pds 4 -Pl 10.000000 -Pc REPLY 
s -t 0.117395240 -Hs 0 -Hd 3 -Ni 0 -Nx 15.00 -Ny 20.00 -Nz 0.00 -Ne 99.997110 -Nl MAC -Nw --- -Ma 0 -Md 3 -Ms 0 -Mt 800 -Is 0.0 -Id 3.0 -It cbr -Il 32 -If 0 -Ii 0 -Iv 30 -Pn cbr -Pi 0 -Pf 0 -Po 0 
N -t 0.117395 -n 1 -e 99.996554
N -t 0.117395 -n 3 -e 99.996938
N -t 0.117395 -n 2 -e 99.996842
r -t 0.119251300 -Hs 3 -Hd 3 -Ni 3 -Nx 5.00 -Ny 5.00 -Nz 0.00 -Ne 99.996938 -Nl MAC -Nw --- -Ma 0 -Md 3 -Ms 0 -Mt 800 -Is 0.0 -Id 3.0 -It cbr -Il 25 -If 0 -Ii 0 -Iv 30 -Pn cbr -Pi 0 -Pf 1 -Po 0 
s -t 0.119999685 -Hs 1 -Hd -2 -Ni 1 -Nx 25.00 -Ny 20.00 -Nz 0.00 -Ne 99.996458 -Nl MAC -Nw --- -Ma 0 -Md ffffffff -Ms 1 -Mt 800 -Is 1.255 -Id -1.255 -It AODV -Il 55 -If 0 -Ii 0 -Iv 29 -P aodv -Pt 0x2 -Ph 2 -Pb 1 -Pd 3 -Pds 0 -Ps 0 -Pss 4 -Pc REQUEST 
N -t 0.120000 -n 0 -e 99.996160
N -t 0.120000 -n 2 -e 99.996256
N -t 0.120000 -n 3 -e 99.996352
r -t 0.122591718 -Hs 0 -Hd -2 -Ni 0 -Nx 15.00 -Ny 20.00 -Nz 0.00 -Ne 99.996160 -Nl MAC -Nw --- -Ma 0 -Md ffffffff -Ms 1 -Mt 800 -Is 1.255 -Id -1.255 -It AODV -Il 48 -If 0 -Ii 0 -Iv 29 -P aodv -Pt 0x2 -Ph 2 -Pb 1 -Pd 3 -Pds 0 -Ps 0 -Pss 4 -Pc REQUEST 
r -t 0.122591718 -Hs 2 -Hd -2 -Ni 2 -Nx 35.00 -Ny 20.00 -Nz 0.00 -Ne 99.996256 -Nl MAC -Nw --- -Ma 0 -Md ffffffff -Ms 1 -Mt 800 -Is 1.255 -Id -1.255 -It AODV -Il 48 -If 0 -Ii 0 -Iv 29 -P aodv -Pt 0x2 -Ph 2 -Pb 1 -Pd 3 -Pds 0 -Ps 0 -Pss 4 -Pc REQUEST 
r -t 0.122591768 -Hs 3 -Hd -2 -Ni 3 -Nx 5.00 -Ny 5.00 -Nz 0.00 -Ne 99.996352 -Nl MAC -Nw --- -Ma 0 -Md ffffffff -Ms 1 -Mt 800 -Is 1.255 -Id -1.255 -It AODV -Il 48 -If 0 -Ii 0 -Iv 29 -P aodv -Pt 0x2 -Ph 2 -Pb 1 -Pd 3 -Pds 0 -Ps 0 -Pss 4 -Pc REQUEST 
s -t 0.200665000 -Hs 1 -Hd -2 -Ni 1 -Nx 25.00 -Ny 20.00 -Nz 0.00 -Ne 99.995776 -Nl MAC -Nw --- -Ma 0 -Md ffffffff -Ms 1 -Mt 800 -Is 1.255 -Id -1.255 -It AODV -Il 55 -If 0 -Ii 0 -Iv 30 -P aodv -Pt 0x2 -Ph 1 -Pb 1 -Pd 3 -Pds 0 -Ps 1 -Pss 4 -Pc REQUEST 
N -t 0.200665 -n 0 -e 99.995574
N -t 0.200665 -n 2 -e 99.995670
N -t 0.200665 -n 3 -e 99.995766
r -t 0.203257033 -Hs 0 -Hd -2 -Ni 0 -Nx 15.00 -Ny 20.00 -Nz 0.00 -Ne 99.995574 -Nl MAC -Nw --- -Ma 0 -Md ffffffff -Ms 1 -Mt 800 -Is 1.255 -Id -1.255 -It AODV -Il 48 -If 0 -Ii 0 -Iv 30 -P aodv -Pt 0x2 -Ph 1 -Pb 1 -Pd 3 -Pds 0 -Ps 1 -Pss 4 -Pc REQUEST 
r -t 0.203257033 -Hs 2 -Hd -2 -Ni 2 -Nx 35.00 -Ny 20.00 -Nz 0.00 -Ne 99.995670 -Nl MAC -Nw --- -Ma 0 -Md ffffffff -Ms 1 -Mt 800 -Is 1.255 -Id -1.255 -It AODV -Il 48 -If 0 -Ii 0 -Iv 30 -P aodv -Pt 0x2 -Ph 1 -Pb 1 -Pd 3 -Pds 0 -Ps 1 -Pss 4 -Pc REQUEST 
r -t 0.203257083 -Hs 3 -Hd -2 -Ni 3 -Nx 5.00 -Ny 5.00 -Nz 0.00 -Ne 99.995766 -Nl MAC -Nw --- -Ma 0 -Md ffffffff -Ms 1 -Mt 800 -Is 1.255 -Id -1.255 -It AODV -Il 48 -If 0 -Ii 0 -Iv 30 -P aodv -Pt 0x2 -Ph 1 -Pb 1 -Pd 3 -Pds 0 -Ps 1 -Pss 4 -Pc REQUEST 
s -t 0.205207083 -Hs 3 -Hd -2 -Ni 3 -Nx 5.00 -Ny 5.00 -Nz 0.00 -Ne 99.995670 -Nl MAC -Nw --- -Ma 0 -Md ffffffff -Ms 3 -Mt 806 -P arp -Po REQUEST -Pms 3 -Ps 3 -Pmd 0 -Pd 1 
N -t 0.205207 -n 0 -e 99.995181
N -t 0.205207 -n 1 -e 99.994797
N -t 0.205207 -n 2 -e 99.995277
r -t 0.207159143 -Hs 0 -Hd -2 -Ni 0 -Nx 15.00 -Ny 20.00 -Nz 0.00 -Ne 99.994989 -Nl MAC -Nw --- -Ma 0 -Md ffffffff -Ms 3 -Mt 806 -P arp -Po REQUEST -Pms 3 -Ps 3 -Pmd 0 -Pd 1 
r -t 0.207159167 -Hs 1 -Hd -2 -Ni 1 -Nx 25.00 -Ny 20.00 -Nz 0.00 -Ne 99.994797 -Nl MAC -Nw --- -Ma 0 -Md ffffffff -Ms 3 -Mt 806 -P arp -Po REQUEST -Pms 3 -Ps 3 -Pmd 0 -Pd 1 
r -t 0.207159195 -Hs 2 -Hd -2 -Ni 2 -Nx 35.00 -Ny 20.00 -Nz 0.00 -Ne 99.995085 -Nl MAC -Nw --- -Ma 0 -Md ffffffff -Ms 3 -Mt 806 -P arp -Po REQUEST -Pms 3 -Ps 3 -Pmd 0 -Pd 1 
s -t 0.208124167 -Hs 1 -Hd -2 -Ni 1 -Nx 25.00 -Ny 20.00 -Nz 0.00 -Ne 99.994701 -Nl MAC -Nw --- -Ma 0 -Md 3 -Ms 1 -Mt 806 -P arp -Po REPLY -Pms 1 -Ps 1 -Pmd 3 -Pd 3 
N -t 0.208124 -n 0 -e 99.994595
N -t 0.208124 -n 2 -e 99.994691
N -t 0.208124 -n 3 -e 99.994883
r -t 0.210076250 -Hs 3 -Hd -2 -Ni 3 -Nx 5.00 -Ny 5.00 -Nz 0.00 -Ne 99.994883 -Nl MAC -Nw --- -Ma 0 -Md 3 -Ms 1 -Mt 806 -P arp -Po REPLY -Pms 1 -Ps 1 -Pmd 3 -Pd 3 
s -t 0.210455033 -Hs 0 -Hd -2 -Ni 0 -Nx 15.00 -Ny 20.00 -Nz 0.00 -Ne 99.994499 -Nl MAC -Nw --- -Ma 0 -Md ffffffff -Ms 0 -Mt 806 -P arp -Po REQUEST -Pms 0 -Ps 0 -Pmd 0 -Pd 1 
N -t 0.210455 -n 1 -e 99.993914
N -t 0.210455 -n 3 -e 99.994490
N -t 0.210455 -n 2 -e 99.994298
r -t 0.212407067 -Hs 1 -Hd -2 -Ni 1 -Nx 25.00 -Ny 20.00 -Nz 0.00 -Ne 99.993914 -Nl MAC -Nw --- -Ma 0 -Md ffffffff -Ms 0 -Mt 806 -P arp -Po REQUEST -Pms 0 -Ps 0 -Pmd 0 -Pd 1 
r -t 0.212407093 -Hs 3 -Hd -2 -Ni 3 -Nx 5.00 -Ny 5.00 -Nz 0.00 -Ne 99.994298 -Nl MAC -Nw --- -Ma 0 -Md ffffffff -Ms 0 -Mt 806 -P arp -Po REQUEST -Pms 0 -Ps 0 -Pmd 0 -Pd 1 
r -t 0.212407100 -Hs 2 -Hd -2 -Ni 2 -Nx 35.00 -Ny 20.00 -Nz 0.00 -Ne 99.994106 -Nl MAC -Nw --- -Ma 0 -Md ffffffff -Ms 0 -Mt 806 -P arp -Po REQUEST -Pms 0 -Ps 0 -Pmd 0 -Pd 1 
s -t 0.213692067 -Hs 1 -Hd -2 -Ni 1 -Nx 25.00 -Ny 20.00 -Nz 0.00 -Ne 99.993818 -Nl MAC -Nw --- -Ma 0 -Md 0 -Ms 1 -Mt 806 -P arp -Po REPLY -Pms 1 -Ps 1 -Pmd 0 -Pd 0 
N -t 0.213692 -n 0 -e 99.993712
N -t 0.213692 -n 2 -e 99.993712
N -t 0.213692 -n 3 -e 99.993904
s -t 0.215329250 -Hs 3 -Hd 1 -Ni 3 -Nx 5.00 -Ny 5.00 -Nz 0.00 -Ne 99.993712 -Nl MAC -Nw --- -Ma 0 -Md 1 -Ms 3 -Mt 800 -Is 3.255 -Id 1.255 -It AODV -Il 51 -If 0 -Ii 0 -Iv 30 -P aodv -Pt 0x4 -Ph 1 -Pd 3 -Pds 6 -Pl 10.000000 -Pc REPLY 
N -t 0.215329 -n 0 -e 99.993165
N -t 0.215329 -n 1 -e 99.992877
N -t 0.215329 -n 2 -e 99.993165
r -t 0.215644100 -Hs 0 -Hd -2 -Ni 0 -Nx 15.00 -Ny 20.00 -Nz 0.00 -Ne 99.993165 -Nl MAC -Nw --- -Ma 0 -Md 0 -Ms 1 -Mt 806 -P arp -Po REPLY -Pms 1 -Ps 1 -Pmd 0 -Pd 0 
s -t 0.217569100 -Hs 0 -Hd 1 -Ni 0 -Nx 15.00 -Ny 20.00 -Nz 0.00 -Ne 99.993069 -Nl MAC -Nw --- -Ma 0 -Md 1 -Ms 0 -Mt 800 -Is 0.255 -Id 1.255 -It AODV -Il 51 -If 0 -Ii 0 -Iv 30 -P aodv -Pt 0x4 -Ph 2 -Pd 3 -Pds 4 -Pl 9.000000 -Pc REPLY 
N -t 0.217569 -n 1 -e 99.992330
N -t 0.217569 -n 3 -e 99.992618
N -t 0.217569 -n 2 -e 99.992618
r -t 0.217793333 -Hs 1 -Hd 1 -Ni 1 -Nx 25.00 -Ny 20.00 -Nz 0.00 -Ne 99.992330 -Nl MAC -Nw --- -Ma 0 -Md 1 -Ms 3 -Mt 800 -Is 3.255 -Id 1.255 -It AODV -Il 44 -If 0 -Ii 0 -Iv 30 -P aodv -Pt 0x4 -Ph 1 -Pd 3 -Pds 6 -Pl 10.000000 -Pc REPLY 
s -t 0.219763333 -Hs 1 -Hd 3 -Ni 1 -Nx 25.00 -Ny 20.00 -Nz 0.00 -Ne 99.992138 -Nl MAC -Nw --- -Ma 0 -Md 3 -Ms 1 -Mt 800 -Is 1.0 -Id 3.7 -It cbr -Il 28 -If 0 -Ii 1 -Iv 30 -Pn cbr -Pi 0 -Pf 0 -Po 0 
N -t 0.219763 -n 0 -e 99.992195
N -t 0.219763 -n 2 -e 99.992099
N -t 0.219763 -n 3 -e 99.992291
r -t 0.220033133 -Hs 1 -Hd 1 -Ni 1 -Nx 25.00 -Ny 20.00 -Nz 0.00 -Ne 99.991811 -Nl MAC -Nw --- -Ma 0 -Md 1 -Ms 0 -Mt 800 -Is 0.255 -Id 1.255 -It AODV -Il 44 -If 0 -Ii 0 -Iv 30 -P aodv -Pt 0x4 -Ph 2 -Pd 3 -Pds 4 -Pl 9.000000 -Pc REPLY 
r -t 0.221491417 -Hs 3 -Hd 3 -Ni 3 -Nx 5.00 -Ny 5.00 -Nz 0.00 -Ne 99.992291 -Nl MAC -Nw --- -Ma 0 -Md 3 -Ms 1 -Mt 800 -Is 1.0 -Id 3.7 -It cbr -Il 21 -If 0 -Ii 1 -Iv 30 -Pn cbr -Pi 0 -Pf 1 -Po 0 
s -t 0.225791913 -Hs 2 -Hd -2 -Ni 2 -Nx 35.00 -Ny 20.00 -Nz 0.00 -Ne 99.992003 -Nl MAC -Nw --- -Ma 0 -Md ffffffff -Ms 2 -Mt 800 -Is 2.255 -Id -1.255 -It AODV -Il 55 -If 0 -Ii 0 -Iv 29 -P aodv -Pt 0x2 -Ph 2 -Pb 1 -Pd 3 -Pds 0 -Ps 1 -Pss 4 -Pc REQUEST 
N -t 0.225792 -n 1 -e 99.991226
N -t 0.225792 -n 0 -e 99.991610
N -t 0.225792 -n 3 -e 99.991706
r -t 0.228383946 -Hs 1 -Hd -2 -Ni 1 -Nx 25.00 -Ny 20.00 -Nz 0.00 -Ne 99.991226 -Nl MAC -Nw --- -Ma 0 -Md ffffffff -Ms 2 -Mt 800 -Is 2.255 -Id -1.255 -It AODV -Il 48 -If 0 -Ii 0 -Iv 29 -P aodv -Pt 0x2 -Ph 2 -Pb 1 -Pd 3 -Pds 0 -Ps 1 -Pss 4 -Pc REQUEST 
r -t 0.228383979 -Hs 0 -Hd -2 -Ni 0 -Nx 15.00 -Ny 20.00 -Nz 0.00 -Ne 99.991610 -Nl MAC -Nw --- -Ma 0 -Md ffffffff -Ms 2 -Mt 800 -Is 2.255 -Id -1.255 -It AODV -Il 48 -If 0 -Ii 0 -Iv 29 -P aodv -Pt 0x2 -Ph 2 -Pb 1 -Pd 3 -Pds 0 -Ps 1 -Pss 4 -Pc REQUEST 
r -t 0.228384025 -Hs 3 -Hd -2 -Ni 3 -Nx 5.00 -Ny 5.00 -Nz 0.00 -Ne 99.991706 -Nl MAC -Nw --- -Ma 0 -Md ffffffff -Ms 2 -Mt 800 -Is 2.255 -Id -1.255 -It AODV -Il 48 -If 0 -Ii 0 -Iv 29 -P aodv -Pt 0x2 -Ph 2 -Pb 1 -Pd 3 -Pds 0 -Ps 1 -Pss 4 -Pc REQUEST 
s -t 0.301625000 -Hs 0 -Hd 3 -Ni 0 -Nx 15.00 -Ny 20.00 -Nz 0.00 -Ne 99.991514 -Nl MAC -Nw --- -Ma 0 -Md 3 -Ms 0 -Mt 800 -Is 0.0 -Id 3.0 -It cbr -Il 32 -If 0 -Ii 2 -Iv 30 -Pn cbr -Pi 1 -Pf 0 -Po 0 
N -t 0.301625 -n 1 -e 99.990861
N -t 0.301625 -n 3 -e 99.991341
N -t 0.301625 -n 2 -e 99.991053
r -t 0.303481060 -Hs 3 -Hd 3 -Ni 3 -Nx 5.00 -Ny 5.00 -Nz 0.00 -Ne 99.991341 -Nl MAC -Nw --- -Ma 0 -Md 3 -Ms 0 -Mt 800 -Is 0.0 -Id 3.0 -It cbr -Il 25 -If 0 -Ii 2 -Iv 30 -Pn cbr -Pi 1 -Pf 1 -Po 0 
s -t 0.400665000 -Hs 1 -Hd 3 -Ni 1 -Nx 25.00 -Ny 20.00 -Nz 0.00 -Ne 99.990765 -Nl MAC -Nw --- -Ma 0 -Md 3 -Ms 1 -Mt 800 -Is 1.0 -Id 3.7 -It cbr -Il 28 -If 0 -Ii 3 -Iv 30 -Pn cbr -Pi 1 -Pf 0 -Po 0 
N -t 0.400665 -n 0 -e 99.990822
N -t 0.400665 -n 2 -e 99.990726
N -t 0.400665 -n 3 -e 99.991014
r -t 0.402393083 -Hs 3 -Hd 3 -Ni 3 -Nx 5.00 -Ny 5.00 -Nz 0.00 -Ne 99.991014 -Nl MAC -Nw --- -Ma 0 -Md 3 -Ms 1 -Mt 800 -Is 1.0 -Id 3.7 -It cbr -Il 21 -If 0 -Ii 3 -Iv 30 -Pn cbr -Pi 1 -Pf 1 -Po 0 
s -t 0.500345000 -Hs 0 -Hd 3 -Ni 0 -Nx 15.00 -Ny 20.00 -Nz 0.00 -Ne 99.990726 -Nl MAC -Nw --- -Ma 0 -Md 3 -Ms 0 -Mt 800 -Is 0.0 -Id 3.0 -It cbr -Il 32 -If 0 -Ii 4 -Iv 30 -Pn cbr -Pi 2 -Pf 0 -Po 0 
N -t 0.500345 -n 1 -e 99.990074
N -t 0.500345 -n 3 -e 99.990650
N -t 0.500345 -n 2 -e 99.990362
r -t 0.502201060 -Hs 3 -Hd 3 -Ni 3 -Nx 5.00 -Ny 5.00 -Nz 0.00 -Ne 99.990650 -Nl MAC -Nw --- -Ma 0 -Md 3 -Ms 0 -Mt 800 -Is 0.0 -Id 3.0 -It cbr -Il 25 -If 0 -Ii 4 -Iv 30 -Pn cbr -Pi 2 -Pf 1 -Po 0 
s -t 0.602585000 -Hs 1 -Hd 3 -Ni 1 -Nx 25.00 -Ny 20.00 -Nz 0.00 -Ne 99.989978 -Nl MAC -Nw --- -Ma 0 -Md 3 -Ms 1 -Mt 800 -Is 1.0 -Id 3.7 -It cbr -Il 28 -If 0 -Ii 5 -Iv 30 -Pn cbr -Pi 2 -Pf 0 -Po 0 
N -t 0.602585 -n 0 -e 99.990035
N -t 0.602585 -n 2 -e 99.990035
N -t 0.602585 -n 3 -e 99.990323
r -t 0.604313083 -Hs 3 -Hd 3 -Ni 3 -Nx 5.00 -Ny 5.00 -Nz 0.00 -Ne 99.990323 -Nl MAC -Nw --- -Ma 0 -Md 3 -Ms 1 -Mt 800 -Is 1.0 -Id 3.7 -It cbr -Il 21 -If 0 -Ii 5 -Iv 30 -Pn cbr -Pi 2 -Pf 1 -Po 0 
s -t 0.700665000 -Hs 0 -Hd 3 -Ni 0 -Nx 15.00 -Ny 20.00 -Nz 0.00 -Ne 99.989939 -Nl MAC -Nw --- -Ma 0 -Md 3 -Ms 0 -Mt 800 -Is 0.0 -Id 3.0 -It cbr -Il 32 -If 0 -Ii 6 -Iv 30 -Pn cbr -Pi 3 -Pf 0 -Po 0 
N -t 0.700665 -n 1 -e 99.989286
N -t 0.700665 -n 3 -e 99.989958
N -t 0.700665 -n 2 -e 99.989670
r -t 0.702521060 -Hs 3 -Hd 3 -Ni 3 -Nx 5.00 -Ny 5.00 -Nz 0.00 -Ne 99.989958 -Nl MAC -Nw --- -Ma 0 -Md 3 -Ms 0 -Mt 800 -Is 0.0 -Id 3.0 -It cbr -Il 25 -If 0 -Ii 6 -Iv 30 -Pn cbr -Pi 3 -Pf 1 -Po 0 
s -t 0.802585000 -Hs 1 -Hd 3 -Ni 1 -Nx 25.00 -Ny 20.00 -Nz 0.00 -Ne 99.989190 -Nl MAC -Nw --- -Ma 0 -Md 3 -Ms 1 -Mt 800 -Is 1.0 -Id 3.7 -It cbr -Il 28 -If 0 -Ii 7 -Iv 30 -Pn cbr -Pi 3 -Pf 0 -Po 0 
N -t 0.802585 -n 0 -e 99.989248
N -t 0.802585 -n 2 -e 99.989344
N -t 0.802585 -n 3 -e 99.989632
r -t 0.804313083 -Hs 3 -Hd 3 -Ni 3 -Nx 5.00 -Ny 5.00 -Nz 0.00 -Ne 99.989632 -Nl MAC -Nw --- -Ma 0 -Md 3 -Ms 1 -Mt 800 -Is 1.0 -Id 3.7 -It cbr -Il 21 -If 0 -Ii 7 -Iv 30 -Pn cbr -Pi 3 -Pf 1 -Po 0 
s -t 0.900985000 -Hs 0 -Hd 3 -Ni 0 -Nx 15.00 -Ny 20.00 -Nz 0.00 -Ne 99.989152 -Nl MAC -Nw --- -Ma 0 -Md 3 -Ms 0 -Mt 800 -Is 0.0 -Id 3.0 -It cbr -Il 32 -If 0 -Ii 8 -Iv 30 -Pn cbr -Pi 4 -Pf 0 -Po 0 
N -t 0.900985 -n 1 -e 99.988499
N -t 0.900985 -n 3 -e 99.989267
N -t 0.900985 -n 2 -e 99.988979
r -t 0.902841060 -Hs 3 -Hd 3 -Ni 3 -Nx 5.00 -Ny 5.00 -Nz 0.00 -Ne 99.989267 -Nl MAC -Nw --- -Ma 0 -Md 3 -Ms 0 -Mt 800 -Is 0.0 -Id 3.0 -It cbr -Il 25 -If 0 -Ii 8 -Iv 30 -Pn cbr -Pi 4 -Pf 1 -Po 0 
s -t 1.000665000 -Hs 1 -Hd 3 -Ni 1 -Nx 25.00 -Ny 20.00 -Nz 0.00 -Ne 99.988403 -Nl MAC -Nw --- -Ma 0 -Md 3 -Ms 1 -Mt 800 -Is 1.1 -Id 3.8 -It cbr -Il 30 -If 0 -Ii 10 -Iv 30 -Pn cbr -Pi 0 -Pf 0 -Po 0 
N -t 1.000665 -n 0 -e 99.988442
N -t 1.000665 -n 2 -e 99.988634
N -t 1.000665 -n 3 -e 99.988922
r -t 1.002457083 -Hs 3 -Hd 3 -Ni 3 -Nx 5.00 -Ny 5.00 -Nz 0.00 -Ne 99.988922 -Nl MAC -Nw --- -Ma 0 -Md 3 -Ms 1 -Mt 800 -Is 1.1 -Id 3.8 -It cbr -Il 23 -If 0 -Ii 10 -Iv 30 -Pn cbr -Pi 0 -Pf 1 -Po 0 
s -t 1.002585000 -Hs 0 -Hd 3 -Ni 0 -Nx 15.00 -Ny 20.00 -Nz 0.00 -Ne 99.988346 -Nl MAC -Nw --- -Ma 0 -Md 3 -Ms 0 -Mt 800 -Is 0.1 -Id 3.1 -It cbr -Il 35 -If 0 -Ii 9 -Iv 30 -Pn cbr -Pi 0 -Pf 0 -Po 0 
N -t 1.002585 -n 1 -e 99.987664
N -t 1.002585 -n 3 -e 99.988528
N -t 1.002585 -n 2 -e 99.988240
r -t 1.004537060 -Hs 3 -Hd 3 -Ni 3 -Nx 5.00 -Ny 5.00 -Nz 0.00 -Ne 99.988528 -Nl MAC -Nw --- -Ma 0 -Md 3 -Ms 0 -Mt 800 -Is 0.1 -Id 3.1 -It cbr -Il 28 -If 0 -Ii 9 -Iv 30 -Pn cbr -Pi 0 -Pf 1 -Po 0 
s -t 1.200665000 -Hs 0 -Hd 3 -Ni 0 -Nx 15.00 -Ny 20.00 -Nz 0.00 -Ne 99.987856 -Nl MAC -Nw --- -Ma 0 -Md 3 -Ms 0 -Mt 800 -Is 0.1 -Id 3.1 -It cbr -Il 35 -If 0 -Ii 11 -Iv 30 -Pn cbr -Pi 1 -Pf 0 -Po 0 
N -t 1.200665 -n 1 -e 99.987270
N -t 1.200665 -n 3 -e 99.988134
N -t 1.200665 -n 2 -e 99.987846
r -t 1.202617060 -Hs 3 -Hd 3 -Ni 3 -Nx 5.00 -Ny 5.00 -Nz 0.00 -Ne 99.988134 -Nl MAC -Nw --- -Ma 0 -Md 3 -Ms 0 -Mt 800 -Is 0.1 -Id 3.1 -It cbr -Il 28 -If 0 -Ii 11 -Iv 30 -Pn cbr -Pi 1 -Pf 1 -Po 0 
s -t 1.204313000 -Hs 1 -Hd 3 -Ni 1 -Nx 25.00 -Ny 20.00 -Nz 0.00 -Ne 99.986982 -Nl MAC -Nw --- -Ma 0 -Md 3 -Ms 1 -Mt 800 -Is 1.1 -Id 3.8 -It cbr -Il 30 -If 0 -Ii 12 -Iv 30 -Pn cbr -Pi 1 -Pf 0 -Po 0 
N -t 1.204313 -n 0 -e 99.987117
N -t 1.204313 -n 2 -e 99.987501
N -t 1.204313 -n 3 -e 99.987789
r -t 1.206105083 -Hs 3 -Hd 3 -Ni 3 -Nx 5.00 -Ny 5.00 -Nz 0.00 -Ne 99.987789 -Nl MAC -Nw --- -Ma 0 -Md 3 -Ms 1 -Mt 800 -Is 1.1 -Id 3.8 -It cbr -Il 23 -If 0 -Ii 12 -Iv 30 -Pn cbr -Pi 1 -Pf 1 -Po 0 
s -t 1.401625000 -Hs 1 -Hd 3 -Ni 1 -Nx 25.00 -Ny 20.00 -Nz 0.00 -Ne 99.986541 -Nl MAC -Nw --- -Ma 0 -Md 3 -Ms 1 -Mt 800 -Is 1.1 -Id 3.8 -It cbr -Il 30 -If 0 -Ii 14 -Iv 30 -Pn cbr -Pi 2 -Pf 0 -Po 0 
N -t 1.401625 -n 0 -e 99.986771
N -t 1.401625 -n 2 -e 99.987155
N -t 1.401625 -n 3 -e 99.987443
r -t 1.403417083 -Hs 3 -Hd 3 -Ni 3 -Nx 5.00 -Ny 5.00 -Nz 0.00 -Ne 99.987443 -Nl MAC -Nw --- -Ma 0 -Md 3 -Ms 1 -Mt 800 -Is 1.1 -Id 3.8 -It cbr -Il 23 -If 0 -Ii 14 -Iv 30 -Pn cbr -Pi 2 -Pf 1 -Po 0 
s -t 1.405401000 -Hs 0 -Hd 3 -Ni 0 -Nx 15.00 -Ny 20.00 -Nz 0.00 -Ne 99.986291 -Nl MAC -Nw --- -Ma 0 -Md 3 -Ms 0 -Mt 800 -Is 0.1 -Id 3.1 -It cbr -Il 35 -If 0 -Ii 13 -Iv 30 -Pn cbr -Pi 2 -Pf 0 -Po 0 
N -t 1.405401 -n 1 -e 99.985802
N -t 1.405401 -n 3 -e 99.987050
N -t 1.405401 -n 2 -e 99.986762
r -t 1.407353060 -Hs 3 -Hd 3 -Ni 3 -Nx 5.00 -Ny 5.00 -Nz 0.00 -Ne 99.987050 -Nl MAC -Nw --- -Ma 0 -Md 3 -Ms 0 -Mt 800 -Is 0.1 -Id 3.1 -It cbr -Il 28 -If 0 -Ii 13 -Iv 30 -Pn cbr -Pi 2 -Pf 1 -Po 0 
s -t 1.600985000 -Hs 1 -Hd 3 -Ni 1 -Nx 25.00 -Ny 20.00 -Nz 0.00 -Ne 99.985706 -Nl MAC -Nw --- -Ma 0 -Md 3 -Ms 1 -Mt 800 -Is 1.1 -Id 3.8 -It cbr -Il 30 -If 0 -Ii 16 -Iv 30 -Pn cbr -Pi 3 -Pf 0 -Po 0 
N -t 1.600985 -n 0 -e 99.985552
N -t 1.600985 -n 2 -e 99.986416
N -t 1.600985 -n 3 -e 99.986704
r -t 1.602777083 -Hs 3 -Hd 3 -Ni 3 -Nx 5.00 -Ny 5.00 -Nz 0.00 -Ne 99.986704 -Nl MAC -Nw --- -Ma 0 -Md 3 -Ms 1 -Mt 800 -Is 1.1 -Id 3.8 -It cbr -Il 23 -If 0 -Ii 16 -Iv 30 -Pn cbr -Pi 3 -Pf 1 -Po 0 
s -t 1.603353000 -Hs 0 -Hd 3 -Ni 0 -Nx 15.00 -Ny 20.00 -Nz 0.00 -Ne 99.985264 -Nl MAC -Nw --- -Ma 0 -Md 3 -Ms 0 -Mt 800 -Is 0.1 -Id 3.1 -It cbr -Il 35 -If 0 -Ii 15 -Iv 30 -Pn cbr -Pi 3 -Pf 0 -Po 0 
N -t 1.603353 -n 1 -e 99.984966
N -t 1.603353 -n 3 -e 99.986310
N -t 1.603353 -n 2 -e 99.986022
r -t 1.605305060 -Hs 3 -Hd 3 -Ni 3 -Nx 5.00 -Ny 5.00 -Nz 0.00 -Ne 99.986310 -Nl MAC -Nw --- -Ma 0 -Md 3 -Ms 0 -Mt 800 -Is 0.1 -Id 3.1 -It cbr -Il 28 -If 0 -Ii 15 -Iv 30 -Pn cbr -Pi 3 -Pf 1 -Po 0 
s -t 1.801945000 -Hs 0 -Hd 3 -Ni 0 -Nx 15.00 -Ny 20.00 -Nz 0.00 -Ne 99.984774 -Nl MAC -Nw --- -Ma 0 -Md 3 -Ms 0 -Mt 800 -Is 0.1 -Id 3.1 -It cbr -Il 35 -If 0 -Ii 17 -Iv 30 -Pn cbr -Pi 4 -Pf 0 -Po 0 
s -t 1.801945000 -Hs 1 -Hd 3 -Ni 1 -Nx 25.00 -Ny 20.00 -Nz 0.00 -Ne 99.984870 -Nl MAC -Nw --- -Ma 0 -Md 3 -Ms 1 -Mt 800 -Is 1.1 -Id 3.8 -It cbr -Il 30 -If 0 -Ii 18 -Iv 30 -Pn cbr -Pi 4 -Pf 0 -Po 0 
N -t 1.801945 -n 1 -e 99.984477
N -t 1.801945 -n 0 -e 99.984381
N -t 1.801945 -n 2 -e 99.985677
N -t 1.801945 -n 3 -e 99.985917
N -t 1.801945 -n 2 -e 99.985629
N -t 1.801945 -n 3 -e 99.985917
d -t 1.803257060 -Hs 3 -Hd 3 -Ni 3 -Nx 5.00 -Ny 5.00 -Nz 0.00 -Ne 99.985917 -Nl MAC -Nw LQI -Ma 0 -Md 3 -Ms 0 -Mt 800 -Is 0.1 -Id 3.1 -It cbr -Il 35 -If 0 -Ii 17 -Iv 30 -Pn cbr -Pi 4 -Pf 0 -Po 0 
s -t 2.000345000 -Hs 1 -Hd 3 -Ni 1 -Nx 25.00 -Ny 20.00 -Nz 0.00 -Ne 99.984381 -Nl MAC -Nw --- -Ma 0 -Md 3 -Ms 1 -Mt 800 -Is 1.2 -Id 3.9 -It cbr -Il 32 -If 0 -Ii 20 -Iv 30 -Pn cbr -Pi 0 -Pf 0 -Po 0 
N -t 2.000345 -n 0 -e 99.984016
N -t 2.000345 -n 2 -e 99.985264
N -t 2.000345 -n 3 -e 99.985552
r -t 2.002201083 -Hs 3 -Hd 3 -Ni 3 -Nx 5.00 -Ny 5.00 -Nz 0.00 -Ne 99.985552 -Nl MAC -Nw --- -Ma 0 -Md 3 -Ms 1 -Mt 800 -Is 1.2 -Id 3.9 -It cbr -Il 25 -If 0 -Ii 20 -Iv 30 -Pn cbr -Pi 0 -Pf 1 -Po 0 
s -t 2.002265000 -Hs 2 -Hd -2 -Ni 2 -Nx 35.00 -Ny 20.00 -Nz 0.00 -Ne 99.985168 -Nl MAC -Nw --- -Ma 0 -Md ffffffff -Ms 2 -Mt 800 -Is 2.255 -Id -1.255 -It AODV -Il 55 -If 0 -Ii 0 -Iv 30 -P aodv -Pt 0x2 -Ph 1 -Pb 1 -Pd 3 -Pds 0 -Ps 2 -Pss 4 -Pc REQUEST 
N -t 2.002265 -n 1 -e 99.983430
N -t 2.002265 -n 0 -e 99.983430
N -t 2.002265 -n 3 -e 99.984966
r -t 2.004857033 -Hs 1 -Hd -2 -Ni 1 -Nx 25.00 -Ny 20.00 -Nz 0.00 -Ne 99.983430 -Nl MAC -Nw --- -Ma 0 -Md ffffffff -Ms 2 -Mt 800 -Is 2.255 -Id -1.255 -It AODV -Il 48 -If 0 -Ii 0 -Iv 30 -P aodv -Pt 0x2 -Ph 1 -Pb 1 -Pd 3 -Pds 0 -Ps 2 -Pss 4 -Pc REQUEST 
r -t 2.004857067 -Hs 0 -Hd -2 -Ni 0 -Nx 15.00 -Ny 20.00 -Nz 0.00 -Ne 99.983238 -Nl MAC -Nw --- -Ma 0 -Md ffffffff -Ms 2 -Mt 800 -Is 2.255 -Id -1.255 -It AODV -Il 48 -If 0 -Ii 0 -Iv 30 -P aodv -Pt 0x2 -Ph 1 -Pb 1 -Pd 3 -Pds 0 -Ps 2 -Pss 4 -Pc REQUEST 
r -t 2.004857112 -Hs 3 -Hd -2 -Ni 3 -Nx 5.00 -Ny 5.00 -Nz 0.00 -Ne 99.984966 -Nl MAC -Nw --- -Ma 0 -Md ffffffff -Ms 2 -Mt 800 -Is 2.255 -Id -1.255 -It AODV -Il 48 -If 0 -Ii 0 -Iv 30 -P aodv -Pt 0x2 -Ph 1 -Pb 1 -Pd 3 -Pds 0 -Ps 2 -Pss 4 -Pc REQUEST 
s -t 2.005527112 -Hs 3 -Hd -2 -Ni 3 -Nx 5.00 -Ny 5.00 -Nz 0.00 -Ne 99.984870 -Nl MAC -Nw --- -Ma 0 -Md ffffffff -Ms 3 -Mt 806 -P arp -Po REQUEST -Pms 3 -Ps 3 -Pmd 0 -Pd 2 
N -t 2.005527 -n 0 -e 99.982845
N -t 2.005527 -n 1 -e 99.983037
N -t 2.005527 -n 2 -e 99.984189
r -t 2.007479172 -Hs 0 -Hd -2 -Ni 0 -Nx 15.00 -Ny 20.00 -Nz 0.00 -Ne 99.982653 -Nl MAC -Nw --- -Ma 0 -Md ffffffff -Ms 3 -Mt 806 -P arp -Po REQUEST -Pms 3 -Ps 3 -Pmd 0 -Pd 2 
r -t 2.007479195 -Hs 1 -Hd -2 -Ni 1 -Nx 25.00 -Ny 20.00 -Nz 0.00 -Ne 99.982845 -Nl MAC -Nw --- -Ma 0 -Md ffffffff -Ms 3 -Mt 806 -P arp -Po REQUEST -Pms 3 -Ps 3 -Pmd 0 -Pd 2 
r -t 2.007479224 -Hs 2 -Hd -2 -Ni 2 -Nx 35.00 -Ny 20.00 -Nz 0.00 -Ne 99.984189 -Nl MAC -Nw --- -Ma 0 -Md ffffffff -Ms 3 -Mt 806 -P arp -Po REQUEST -Pms 3 -Ps 3 -Pmd 0 -Pd 2 
s -t 2.007961000 -Hs 0 -Hd 3 -Ni 0 -Nx 15.00 -Ny 20.00 -Nz 0.00 -Ne 99.982557 -Nl MAC -Nw --- -Ma 0 -Md 3 -Ms 0 -Mt 800 -Is 0.2 -Id 3.2 -It cbr -Il 37 -If 0 -Ii 19 -Iv 30 -Pn cbr -Pi 0 -Pf 0 -Po 0 
N -t 2.007961 -n 1 -e 99.982432
N -t 2.007961 -n 3 -e 99.984064
N -t 2.007961 -n 2 -e 99.983776
r -t 2.009977060 -Hs 3 -Hd 3 -Ni 3 -Nx 5.00 -Ny 5.00 -Nz 0.00 -Ne 99.984064 -Nl MAC -Nw --- -Ma 0 -Md 3 -Ms 0 -Mt 800 -Is 0.2 -Id 3.2 -It cbr -Il 30 -If 0 -Ii 19 -Iv 30 -Pn cbr -Pi 0 -Pf 1 -Po 0 
s -t 2.011257000 -Hs 0 -Hd -2 -Ni 0 -Nx 15.00 -Ny 20.00 -Nz 0.00 -Ne 99.982048 -Nl MAC -Nw --- -Ma 0 -Md ffffffff -Ms 0 -Mt 806 -P arp -Po REQUEST -Pms 0 -Ps 0 -Pmd 0 -Pd 2 
N -t 2.011257 -n 1 -e 99.981942
N -t 2.011257 -n 3 -e 99.983670
N -t 2.011257 -n 2 -e 99.983190
s -t 2.011415033 -Hs 1 -Hd -2 -Ni 1 -Nx 25.00 -Ny 20.00 -Nz 0.00 -Ne 99.981942 -Nl MAC -Nw --- -Ma 0 -Md ffffffff -Ms 1 -Mt 806 -P arp -Po REQUEST -Pms 1 -Ps 1 -Pmd 0 -Pd 2 
N -t 2.011415 -n 0 -e 99.981607
N -t 2.011415 -n 2 -e 99.983143
N -t 2.011415 -n 3 -e 99.983623
d -t 2.012569060 -Hs 3 -Hd -2 -Ni 3 -Nx 5.00 -Ny 5.00 -Nz 0.00 -Ne 99.983623 -Nl MAC -Nw LQI -Ma 0 -Md ffffffff -Ms 0 -Mt 806 -P arp -Po REQUEST -Pms 0 -Ps 0 -Pmd 0 -Pd 2 
d -t 2.012727067 -Hs 2 -Hd -2 -Ni 2 -Nx 35.00 -Ny 20.00 -Nz 0.00 -Ne 99.982951 -Nl MAC -Nw LQI -Ma 0 -Md ffffffff -Ms 1 -Mt 806 -P arp -Po REQUEST -Pms 1 -Ps 1 -Pmd 0 -Pd 2 
s -t 2.021500224 -Hs 2 -Hd -2 -Ni 2 -Nx 35.00 -Ny 20.00 -Nz 0.00 -Ne 99.982855 -Nl MAC -Nw --- -Ma 0 -Md 3 -Ms 2 -Mt 806 -P arp -Po REPLY -Pms 2 -Ps 2 -Pmd 3 -Pd 3 
N -t 2.021500 -n 1 -e 99.981501
N -t 2.021500 -n 0 -e 99.981213
N -t 2.021500 -n 3 -e 99.983229
r -t 2.023452335 -Hs 3 -Hd -2 -Ni 3 -Nx 5.00 -Ny 5.00 -Nz 0.00 -Ne 99.983229 -Nl MAC -Nw --- -Ma 0 -Md 3 -Ms 2 -Mt 806 -P arp -Po REPLY -Pms 2 -Ps 2 -Pmd 3 -Pd 3 
s -t 2.024417335 -Hs 3 -Hd 2 -Ni 3 -Nx 5.00 -Ny 5.00 -Nz 0.00 -Ne 99.983133 -Nl MAC -Nw --- -Ma 0 -Md 2 -Ms 3 -Mt 800 -Is 3.255 -Id 2.255 -It AODV -Il 51 -If 0 -Ii 0 -Iv 30 -P aodv -Pt 0x4 -Ph 1 -Pd 3 -Pds 8 -Pl 10.000000 -Pc REPLY 
N -t 2.024417 -n 0 -e 99.980666
N -t 2.024417 -n 1 -e 99.980954
N -t 2.024417 -n 2 -e 99.981914
r -t 2.026881447 -Hs 2 -Hd 2 -Ni 2 -Nx 35.00 -Ny 20.00 -Nz 0.00 -Ne 99.981914 -Nl MAC -Nw --- -Ma 0 -Md 2 -Ms 3 -Mt 800 -Is 3.255 -Id 2.255 -It AODV -Il 44 -If 0 -Ii 0 -Iv 30 -P aodv -Pt 0x4 -Ph 1 -Pd 3 -Pds 8 -Pl 10.000000 -Pc REPLY 
s -t 2.029171447 -Hs 2 -Hd 3 -Ni 2 -Nx 35.00 -Ny 20.00 -Nz 0.00 -Ne 99.981818 -Nl MAC -Nw --- -Ma 0 -Md 3 -Ms 2 -Mt 800 -Is 2.0 -Id 3.16 -It cbr -Il 28 -If 0 -Ii 21 -Iv 30 -Pn cbr -Pi 0 -Pf 0 -Po 0 
N -t 2.029171 -n 1 -e 99.980628
N -t 2.029172 -n 0 -e 99.980340
N -t 2.029172 -n 3 -e 99.982260
r -t 2.030899559 -Hs 3 -Hd 3 -Ni 3 -Nx 5.00 -Ny 5.00 -Nz 0.00 -Ne 99.982260 -Nl MAC -Nw --- -Ma 0 -Md 3 -Ms 2 -Mt 800 -Is 2.0 -Id 3.16 -It cbr -Il 21 -If 0 -Ii 21 -Iv 30 -Pn cbr -Pi 0 -Pf 1 -Po 0 
s -t 2.200985000 -Hs 2 -Hd 3 -Ni 2 -Nx 35.00 -Ny 20.00 -Nz 0.00 -Ne 99.981396 -Nl MAC -Nw --- -Ma 0 -Md 3 -Ms 2 -Mt 800 -Is 2.0 -Id 3.16 -It cbr -Il 28 -If 0 -Ii 24 -Iv 30 -Pn cbr -Pi 1 -Pf 0 -Po 0 
N -t 2.200985 -n 1 -e 99.980301
N -t 2.200985 -n 0 -e 99.980013
N -t 2.200985 -n 3 -e 99.981933
r -t 2.202713112 -Hs 3 -Hd 3 -Ni 3 -Nx 5.00 -Ny 5.00 -Nz 0.00 -Ne 99.981933 -Nl MAC -Nw --- -Ma 0 -Md 3 -Ms 2 -Mt 800 -Is 2.0 -Id 3.16 -It cbr -Il 21 -If 0 -Ii 24 -Iv 30 -Pn cbr -Pi 1 -Pf 1 -Po 0 
s -t 2.203353000 -Hs 0 -Hd 3 -Ni 0 -Nx 15.00 -Ny 20.00 -Nz 0.00 -Ne 99.979725 -Nl MAC -Nw --- -Ma 0 -Md 3 -Ms 0 -Mt 800 -Is 0.2 -Id 3.2 -It cbr -Il 37 -If 0 -Ii 22 -Iv 30 -Pn cbr -Pi 1 -Pf 0 -Po 0 
s -t 2.203353000 -Hs 1 -Hd 3 -Ni 1 -Nx 25.00 -Ny 20.00 -Nz 0.00 -Ne 99.980013 -Nl MAC -Nw --- -Ma 0 -Md 3 -Ms 1 -Mt 800 -Is 1.2 -Id 3.9 -It cbr -Il 32 -If 0 -Ii 23 -Iv 30 -Pn cbr -Pi 1 -Pf 0 -Po 0 
N -t 2.203353 -n 1 -e 99.979601
N -t 2.203353 -n 0 -e 99.979313
N -t 2.203353 -n 2 -e 99.980705
N -t 2.203353 -n 3 -e 99.981521
N -t 2.203353 -n 2 -e 99.980657
N -t 2.203353 -n 3 -e 99.981521
d -t 2.204729060 -Hs 3 -Hd 3 -Ni 3 -Nx 5.00 -Ny 5.00 -Nz 0.00 -Ne 99.981521 -Nl MAC -Nw LQI -Ma 0 -Md 3 -Ms 0 -Mt 800 -Is 0.2 -Id 3.2 -It cbr -Il 37 -If 0 -Ii 22 -Iv 30 -Pn cbr -Pi 1 -Pf 0 -Po 0 
s -t 2.401305000 -Hs 1 -Hd 3 -Ni 1 -Nx 25.00 -Ny 20.00 -Nz 0.00 -Ne 99.979505 -Nl MAC -Nw --- -Ma 0 -Md 3 -Ms 1 -Mt 800 -Is 1.2 -Id 3.9 -It cbr -Il 32 -If 0 -Ii 26 -Iv 30 -Pn cbr -Pi 2 -Pf 0 -Po 0 
N -t 2.401305 -n 0 -e 99.978948
N -t 2.401305 -n 2 -e 99.980292
N -t 2.401305 -n 3 -e 99.981156
r -t 2.403161083 -Hs 3 -Hd 3 -Ni 3 -Nx 5.00 -Ny 5.00 -Nz 0.00 -Ne 99.981156 -Nl MAC -Nw --- -Ma 0 -Md 3 -Ms 1 -Mt 800 -Is 1.2 -Id 3.9 -It cbr -Il 25 -If 0 -Ii 26 -Iv 30 -Pn cbr -Pi 2 -Pf 1 -Po 0 
s -t 2.406873000 -Hs 0 -Hd 3 -Ni 0 -Nx 15.00 -Ny 20.00 -Nz 0.00 -Ne 99.978660 -Nl MAC -Nw --- -Ma 0 -Md 3 -Ms 0 -Mt 800 -Is 0.2 -Id 3.2 -It cbr -Il 37 -If 0 -Ii 25 -Iv 30 -Pn cbr -Pi 2 -Pf 0 -Po 0 
N -t 2.406873 -n 1 -e 99.978727
N -t 2.406873 -n 3 -e 99.980743
N -t 2.406873 -n 2 -e 99.979303
r -t 2.408889060 -Hs 3 -Hd 3 -Ni 3 -Nx 5.00 -Ny 5.00 -Nz 0.00 -Ne 99.980743 -Nl MAC -Nw --- -Ma 0 -Md 3 -Ms 0 -Mt 800 -Is 0.2 -Id 3.2 -It cbr -Il 30 -If 0 -Ii 25 -Iv 30 -Pn cbr -Pi 2 -Pf 1 -Po 0 
s -t 2.411289000 -Hs 2 -Hd 3 -Ni 2 -Nx 35.00 -Ny 20.00 -Nz 0.00 -Ne 99.979207 -Nl MAC -Nw --- -Ma 0 -Md 3 -Ms 2 -Mt 800 -Is 2.0 -Id 3.16 -It cbr -Il 28 -If 0 -Ii 27 -Iv 30 -Pn cbr -Pi 2 -Pf 0 -Po 0 
N -t 2.411289 -n 1 -e 99.978401
N -t 2.411289 -n 0 -e 99.977921
N -t 2.411289 -n 3 -e 99.980417
r -t 2.413017112 -Hs 3 -Hd 3 -Ni 3 -Nx 5.00 -Ny 5.00 -Nz 0.00 -Ne 99.980417 -Nl MAC -Nw --- -Ma 0 -Md 3 -Ms 2 -Mt 800 -Is 2.0 -Id 3.16 -It cbr -Il 21 -If 0 -Ii 27 -Iv 30 -Pn cbr -Pi 2 -Pf 1 -Po 0 
s -t 2.600665000 -Hs 1 -Hd 3 -Ni 1 -Nx 25.00 -Ny 20.00 -Nz 0.00 -Ne 99.978305 -Nl MAC -Nw --- -Ma 0 -Md 3 -Ms 1 -Mt 800 -Is 1.2 -Id 3.9 -It cbr -Il 32 -If 0 -Ii 29 -Iv 30 -Pn cbr -Pi 3 -Pf 0 -Po 0 
N -t 2.600665 -n 0 -e 99.977556
N -t 2.600665 -n 2 -e 99.978516
N -t 2.600665 -n 3 -e 99.980052
r -t 2.602521083 -Hs 3 -Hd 3 -Ni 3 -Nx 5.00 -Ny 5.00 -Nz 0.00 -Ne 99.980052 -Nl MAC -Nw --- -Ma 0 -Md 3 -Ms 1 -Mt 800 -Is 1.2 -Id 3.9 -It cbr -Il 25 -If 0 -Ii 29 -Iv 30 -Pn cbr -Pi 3 -Pf 1 -Po 0 
s -t 2.602585000 -Hs 2 -Hd 3 -Ni 2 -Nx 35.00 -Ny 20.00 -Nz 0.00 -Ne 99.978420 -Nl MAC -Nw --- -Ma 0 -Md 3 -Ms 2 -Mt 800 -Is 2.0 -Id 3.16 -It cbr -Il 28 -If 0 -Ii 30 -Iv 30 -Pn cbr -Pi 3 -Pf 0 -Po 0 
N -t 2.602585 -n 1 -e 99.977613
N -t 2.602585 -n 0 -e 99.977037
N -t 2.602585 -n 3 -e 99.979725
s -t 2.603993000 -Hs 0 -Hd 3 -Ni 0 -Nx 15.00 -Ny 20.00 -Nz 0.00 -Ne 99.976845 -Nl MAC -Nw --- -Ma 0 -Md 3 -Ms 0 -Mt 800 -Is 0.2 -Id 3.2 -It cbr -Il 37 -If 0 -Ii 28 -Iv 30 -Pn cbr -Pi 3 -Pf 0 -Po 0 
N -t 2.603993 -n 1 -e 99.977201
N -t 2.603993 -n 3 -e 99.979313
N -t 2.603993 -n 2 -e 99.977681
r -t 2.604313112 -Hs 3 -Hd 3 -Ni 3 -Nx 5.00 -Ny 5.00 -Nz 0.00 -Ne 99.979313 -Nl MAC -Nw --- -Ma 0 -Md 3 -Ms 2 -Mt 800 -Is 2.0 -Id 3.16 -It cbr -Il 21 -If 0 -Ii 30 -Iv 30 -Pn cbr -Pi 3 -Pf 1 -Po 0 
r -t 2.606009060 -Hs 3 -Hd 3 -Ni 3 -Nx 5.00 -Ny 5.00 -Nz 0.00 -Ne 99.979313 -Nl MAC -Nw --- -Ma 0 -Md 3 -Ms 0 -Mt 800 -Is 0.2 -Id 3.2 -It cbr -Il 30 -If 0 -Ii 28 -Iv 30 -Pn cbr -Pi 3 -Pf 1 -Po 0 
s -t 2.800985000 -Hs 1 -Hd 3 -Ni 1 -Nx 25.00 -Ny 20.00 -Nz 0.00 -Ne 99.977105 -Nl MAC -Nw --- -Ma 0 -Md 3 -Ms 1 -Mt 800 -Is 1.2 -Id 3.9 -It cbr -Il 32 -If 0 -Ii 32 -Iv 30 -Pn cbr -Pi 4 -Pf 0 -Po 0 
N -t 2.800985 -n 0 -e 99.976068
N -t 2.800985 -n 2 -e 99.977316
N -t 2.800985 -n 3 -e 99.978948
r -t 2.802841083 -Hs 3 -Hd 3 -Ni 3 -Nx 5.00 -Ny 5.00 -Nz 0.00 -Ne 99.978948 -Nl MAC -Nw --- -Ma 0 -Md 3 -Ms 1 -Mt 800 -Is 1.2 -Id 3.9 -It cbr -Il 25 -If 0 -Ii 32 -Iv 30 -Pn cbr -Pi 4 -Pf 1 -Po 0 