M 10.00000 0 (5.00, 5.00, 0.00), (250.00, 250.00), 3.00
s 10.000000000 _0_ AGT  --- 0 tcp 40 [0 0 0 0] ------- [0:0 1:0 32 0] [0 0] 0 0
r 10.000000000 _0_ RTR  --- 0 tcp 40 [0 0 0 0] ------- [0:0 1:0 32 0] [0 0] 0 0
s 10.000000000 _1_ AGT  --- 1 tcp 40 [0 0 0 0] ------- [1:1 2:0 32 0] [0 0] 0 0
r 10.000000000 _1_ RTR  --- 1 tcp 40 [0 0 0 0] ------- [1:1 2:0 32 0] [0 0] 0 0
